# vtk DataFile Version 5.1
vtk output
ASCII
DATASET POLYDATA
POINTS 8 float
0.5 0 0.5 0.5 0 1 0.5 0 1.5 
0.5 0 2 1 0 0.5 1 0 1 
1 0 1.5 1 0 2 
METADATA
INFORMATION 2
NAME L2_NORM_RANGE LOCATION vtkDataArray
DATA 2 0.707107 2.23607 
NAME L2_NORM_FINITE_RANGE LOCATION vtkDataArray
DATA 2 0.707107 2.23607 

VERTICES 9 8
OFFSETS vtktypeint64
0 1 2 3 4 5 6 7 8 

CONNECTIVITY vtktypeint64
0 1 2 3 4 5 6 7 
POINT_DATA 8
SCALARS Idp unsigned_int
LOOKUP_TABLE default
21 22 23 24 25 26 27 28 
METADATA
INFORMATION 0

FIELD FieldData 4
Vel 3 8 float
0 0 0 0 0 0 0 0 0 
0 0 0 0 0 0 0 0 0 
0 0 0 0 0 0 
METADATA
INFORMATION 2
NAME L2_NORM_RANGE LOCATION vtkDataArray
DATA 2 0 0 
NAME L2_NORM_FINITE_RANGE LOCATION vtkDataArray
DATA 2 0 0 

Rhop 1 8 float
1002.48 1001.66 1000.83 1000 1002.48 1001.66 1000.83 1000 
METADATA
INFORMATION 0

Type 1 8 unsigned_char
3 3 3 3 3 3 3 3 
METADATA
INFORMATION 0

Mk 1 8 unsigned_char
1 1 1 1 1 1 1 1 
METADATA
INFORMATION 0

