# vtk DataFile Version 5.1
vtk output
ASCII
DATASET POLYDATA
POINTS 301 float
0 0 0 0 0.1 2.22045e-17 0 0.2 4.44089e-17
0 0.3 6.66134e-17 0 0.4 8.88178e-17 0 0.5 1.11022e-16
0 0.6 1.33227e-16 0 0.7 1.55431e-16 0 0.8 1.77636e-16
0 0.9 1.9984e-16 0 1 2.22045e-16 0 1.1 2.44249e-16
0 1.2 2.66454e-16 0 1.3 2.88658e-16 0 1.4 3.10862e-16
0 1.5 3.33067e-16 0 1.6 3.55271e-16 0 1.7 3.77476e-16
0 1.8 3.9968e-16 0 1.9 4.21885e-16 0 2 4.44089e-16
0 2.1 4.66294e-16 0 2.2 4.88498e-16 0 2.3 5.10703e-16
0 2.4 5.32907e-16 0 2.5 5.55112e-16 0 2.6 5.77316e-16
0 2.7 5.9952e-16 0 2.8 6.21725e-16 0 2.9 6.43929e-16
0 3 6.66134e-16 0.1 0 0 0.2 0 0
0.3 0 0 0.4 0 0 0.5 0 0
0.6 0 0 0.7 0 0 0.8 0 0
0.9 0 0 1 0 0 1.1 0 0
1.2 0 0 1.3 0 0 1.4 0 0
1.5 0 0 1.6 0 0 1.7 0 0
1.8 0 0 1.9 0 0 2 0 0
2.1 0 0 2.2 0 0 2.3 0 0
2.4 0 0 2.5 0 0 2.6 0 0
2.7 0 0 2.8 0 0 2.9 0 0
3 0 0 3.1 0 0 3.2 0 0
3.3 0 0 3.4 0 0 3.5 0 0
3.6 0 0 3.7 0 0 3.8 0 0
3.9 0 0 4 0 0 4 0.1 2.22045e-17
4 0.2 4.44089e-17 4 0.3 6.66134e-17 4 0.4 8.88178e-17
4 0.5 1.11022e-16 4 0.6 1.33227e-16 4 0.7 1.55431e-16
4 0.8 1.77636e-16 4 0.9 1.9984e-16 4 1 2.22045e-16
4 1.1 2.44249e-16 4 1.2 2.66454e-16 4 1.3 2.88658e-16
4 1.4 3.10862e-16 4 1.5 3.33067e-16 4 1.6 3.55271e-16
4 1.7 3.77476e-16 4 1.8 3.9968e-16 4 1.9 4.21885e-16
4 2 4.44089e-16 4 2.1 4.66294e-16 4 2.2 4.88498e-16
4 2.3 5.10703e-16 4 2.4 5.32907e-16 4 2.5 5.55112e-16
4 2.6 5.77316e-16 4 2.7 5.9952e-16 4 2.8 6.21725e-16
4 2.9 6.43929e-16 4 3 6.66134e-16 0.1 0.1 2.22045e-17
0.1 0.2 4.44089e-17 0.1 0.3 6.66134e-17 0.1 0.4 8.88178e-17
0.1 0.5 1.11022e-16 0.1 0.6 1.33227e-16 0.1 0.7 1.55431e-16
0.1 0.8 1.77636e-16 0.1 0.9 1.9984e-16 0.1 1 2.22045e-16
0.1 1.1 2.44249e-16 0.1 1.2 2.66454e-16 0.1 1.3 2.88658e-16
0.1 1.4 3.10862e-16 0.1 1.5 3.33067e-16 0.1 1.6 3.55271e-16
0.1 1.7 3.77476e-16 0.1 1.8 3.9968e-16 0.1 1.9 4.21885e-16
0.1 2 4.44089e-16 0.2 0.1 2.22045e-17 0.2 0.2 4.44089e-17
0.2 0.3 6.66134e-17 0.2 0.4 8.88178e-17 0.2 0.5 1.11022e-16
0.2 0.6 1.33227e-16 0.2 0.7 1.55431e-16 0.2 0.8 1.77636e-16
0.2 0.9 1.9984e-16 0.2 1 2.22045e-16 0.2 1.1 2.44249e-16
0.2 1.2 2.66454e-16 0.2 1.3 2.88658e-16 0.2 1.4 3.10862e-16
0.2 1.5 3.33067e-16 0.2 1.6 3.55271e-16 0.2 1.7 3.77476e-16
0.2 1.8 3.9968e-16 0.2 1.9 4.21885e-16 0.2 2 4.44089e-16
0.3 0.1 2.22045e-17 0.3 0.2 4.44089e-17 0.3 0.3 6.66134e-17
0.3 0.4 8.88178e-17 0.3 0.5 1.11022e-16 0.3 0.6 1.33227e-16
0.3 0.7 1.55431e-16 0.3 0.8 1.77636e-16 0.3 0.9 1.9984e-16
0.3 1 2.22045e-16 0.3 1.1 2.44249e-16 0.3 1.2 2.66454e-16
0.3 1.3 2.88658e-16 0.3 1.4 3.10862e-16 0.3 1.5 3.33067e-16
0.3 1.6 3.55271e-16 0.3 1.7 3.77476e-16 0.3 1.8 3.9968e-16
0.3 1.9 4.21885e-16 0.3 2 4.44089e-16 0.4 0.1 2.22045e-17
0.4 0.2 4.44089e-17 0.4 0.3 6.66134e-17 0.4 0.4 8.88178e-17
0.4 0.5 1.11022e-16 0.4 0.6 1.33227e-16 0.4 0.7 1.55431e-16
0.4 0.8 1.77636e-16 0.4 0.9 1.9984e-16 0.4 1 2.22045e-16
0.4 1.1 2.44249e-16 0.4 1.2 2.66454e-16 0.4 1.3 2.88658e-16
0.4 1.4 3.10862e-16 0.4 1.5 3.33067e-16 0.4 1.6 3.55271e-16
0.4 1.7 3.77476e-16 0.4 1.8 3.9968e-16 0.4 1.9 4.21885e-16
0.4 2 4.44089e-16 0.5 0.1 2.22045e-17 0.5 0.2 4.44089e-17
0.5 0.3 6.66134e-17 0.5 0.4 8.88178e-17 0.5 0.5 1.11022e-16
0.5 0.6 1.33227e-16 0.5 0.7 1.55431e-16 0.5 0.8 1.77636e-16
0.5 0.9 1.9984e-16 0.5 1 2.22045e-16 0.5 1.1 2.44249e-16
0.5 1.2 2.66454e-16 0.5 1.3 2.88658e-16 0.5 1.4 3.10862e-16
0.5 1.5 3.33067e-16 0.5 1.6 3.55271e-16 0.5 1.7 3.77476e-16
0.5 1.8 3.9968e-16 0.5 1.9 4.21885e-16 0.5 2 4.44089e-16
0.6 0.1 2.22045e-17 0.6 0.2 4.44089e-17 0.6 0.3 6.66134e-17
0.6 0.4 8.88178e-17 0.6 0.5 1.11022e-16 0.6 0.6 1.33227e-16
0.6 0.7 1.55431e-16 0.6 0.8 1.77636e-16 0.6 0.9 1.9984e-16
0.6 1 2.22045e-16 0.6 1.1 2.44249e-16 0.6 1.2 2.66454e-16
0.6 1.3 2.88658e-16 0.6 1.4 3.10862e-16 0.6 1.5 3.33067e-16
0.6 1.6 3.55271e-16 0.6 1.7 3.77476e-16 0.6 1.8 3.9968e-16
0.6 1.9 4.21885e-16 0.6 2 4.44089e-16 0.7 0.1 2.22045e-17
0.7 0.2 4.44089e-17 0.7 0.3 6.66134e-17 0.7 0.4 8.88178e-17
0.7 0.5 1.11022e-16 0.7 0.6 1.33227e-16 0.7 0.7 1.55431e-16
0.7 0.8 1.77636e-16 0.7 0.9 1.9984e-16 0.7 1 2.22045e-16
0.7 1.1 2.44249e-16 0.7 1.2 2.66454e-16 0.7 1.3 2.88658e-16
0.7 1.4 3.10862e-16 0.7 1.5 3.33067e-16 0.7 1.6 3.55271e-16
0.7 1.7 3.77476e-16 0.7 1.8 3.9968e-16 0.7 1.9 4.21885e-16
0.7 2 4.44089e-16 0.8 0.1 2.22045e-17 0.8 0.2 4.44089e-17
0.8 0.3 6.66134e-17 0.8 0.4 8.88178e-17 0.8 0.5 1.11022e-16
0.8 0.6 1.33227e-16 0.8 0.7 1.55431e-16 0.8 0.8 1.77636e-16
0.8 0.9 1.9984e-16 0.8 1 2.22045e-16 0.8 1.1 2.44249e-16
0.8 1.2 2.66454e-16 0.8 1.3 2.88658e-16 0.8 1.4 3.10862e-16
0.8 1.5 3.33067e-16 0.8 1.6 3.55271e-16 0.8 1.7 3.77476e-16
0.8 1.8 3.9968e-16 0.8 1.9 4.21885e-16 0.8 2 4.44089e-16
0.9 0.1 2.22045e-17 0.9 0.2 4.44089e-17 0.9 0.3 6.66134e-17
0.9 0.4 8.88178e-17 0.9 0.5 1.11022e-16 0.9 0.6 1.33227e-16
0.9 0.7 1.55431e-16 0.9 0.8 1.77636e-16 0.9 0.9 1.9984e-16
0.9 1 2.22045e-16 0.9 1.1 2.44249e-16 0.9 1.2 2.66454e-16
0.9 1.3 2.88658e-16 0.9 1.4 3.10862e-16 0.9 1.5 3.33067e-16
0.9 1.6 3.55271e-16 0.9 1.7 3.77476e-16 0.9 1.8 3.9968e-16
0.9 1.9 4.21885e-16 0.9 2 4.44089e-16 1 0.1 2.22045e-17
1 0.2 4.44089e-17 1 0.3 6.66134e-17 1 0.4 8.88178e-17
1 0.5 1.11022e-16 1 0.6 1.33227e-16 1 0.7 1.55431e-16
1 0.8 1.77636e-16 1 0.9 1.9984e-16 1 1 2.22045e-16
1 1.1 2.44249e-16 1 1.2 2.66454e-16 1 1.3 2.88658e-16
1 1.4 3.10862e-16 1 1.5 3.33067e-16 1 1.6 3.55271e-16
1 1.7 3.77476e-16 1 1.8 3.9968e-16 1 1.9 4.21885e-16
1 2 4.44089e-16
METADATA
INFORMATION 2
NAME L2_NORM_RANGE LOCATION vtkDataArray
DATA 2 0 5
NAME L2_NORM_FINITE_RANGE LOCATION vtkDataArray
DATA 2 0 5

VERTICES 302 301
OFFSETS vtktypeint64
0 1 2 3 4 5 6 7 8
9 10 11 12 13 14 15 16 17
18 19 20 21 22 23 24 25 26
27 28 29 30 31 32 33 34 35
36 37 38 39 40 41 42 43 44
45 46 47 48 49 50 51 52 53
54 55 56 57 58 59 60 61 62
63 64 65 66 67 68 69 70 71
72 73 74 75 76 77 78 79 80
81 82 83 84 85 86 87 88 89
90 91 92 93 94 95 96 97 98
99 100 101 102 103 104 105 106 107
108 109 110 111 112 113 114 115 116
117 118 119 120 121 122 123 124 125
126 127 128 129 130 131 132 133 134
135 136 137 138 139 140 141 142 143
144 145 146 147 148 149 150 151 152
153 154 155 156 157 158 159 160 161
162 163 164 165 166 167 168 169 170
171 172 173 174 175 176 177 178 179
180 181 182 183 184 185 186 187 188
189 190 191 192 193 194 195 196 197
198 199 200 201 202 203 204 205 206
207 208 209 210 211 212 213 214 215
216 217 218 219 220 221 222 223 224
225 226 227 228 229 230 231 232 233
234 235 236 237 238 239 240 241 242
243 244 245 246 247 248 249 250 251
252 253 254 255 256 257 258 259 260
261 262 263 264 265 266 267 268 269
270 271 272 273 274 275 276 277 278
279 280 281 282 283 284 285 286 287
288 289 290 291 292 293 294 295 296
297 298 299 300 301
CONNECTIVITY vtktypeint64
0 1 2 3 4 5 6 7 8
9 10 11 12 13 14 15 16 17
18 19 20 21 22 23 24 25 26
27 28 29 30 31 32 33 34 35
36 37 38 39 40 41 42 43 44
45 46 47 48 49 50 51 52 53
54 55 56 57 58 59 60 61 62
63 64 65 66 67 68 69 70 71
72 73 74 75 76 77 78 79 80
81 82 83 84 85 86 87 88 89
90 91 92 93 94 95 96 97 98
99 100 101 102 103 104 105 106 107
108 109 110 111 112 113 114 115 116
117 118 119 120 121 122 123 124 125
126 127 128 129 130 131 132 133 134
135 136 137 138 139 140 141 142 143
144 145 146 147 148 149 150 151 152
153 154 155 156 157 158 159 160 161
162 163 164 165 166 167 168 169 170
171 172 173 174 175 176 177 178 179
180 181 182 183 184 185 186 187 188
189 190 191 192 193 194 195 196 197
198 199 200 201 202 203 204 205 206
207 208 209 210 211 212 213 214 215
216 217 218 219 220 221 222 223 224
225 226 227 228 229 230 231 232 233
234 235 236 237 238 239 240 241 242
243 244 245 246 247 248 249 250 251
252 253 254 255 256 257 258 259 260
261 262 263 264 265 266 267 268 269
270 271 272 273 274 275 276 277 278
279 280 281 282 283 284 285 286 287
288 289 290 291 292 293 294 295 296
297 298 299 300
POINT_DATA 301
SCALARS Idp unsigned_int
LOOKUP_TABLE default
0 1 2 3 4 5 6 7 8
9 10 11 12 13 14 15 16 17
18 19 20 21 22 23 24 25 26
27 28 29 30 31 32 33 34 35
36 37 38 39 40 41 42 43 44
45 46 47 48 49 50 51 52 53
54 55 56 57 58 59 60 61 62
63 64 65 66 67 68 69 70 71
72 73 74 75 76 77 78 79 80
81 82 83 84 85 86 87 88 89
90 91 92 93 94 95 96 97 98
99 100 101 102 103 104 105 106 107
108 109 110 111 112 113 114 115 116
117 118 119 120 121 122 123 124 125
126 127 128 129 130 131 132 133 134
135 136 137 138 139 140 141 142 143
144 145 146 147 148 149 150 151 152
153 154 155 156 157 158 159 160 161
162 163 164 165 166 167 168 169 170
171 172 173 174 175 176 177 178 179
180 181 182 183 184 185 186 187 188
189 190 191 192 193 194 195 196 197
198 199 200 201 202 203 204 205 206
207 208 209 210 211 212 213 214 215
216 217 218 219 220 221 222 223 224
225 226 227 228 229 230 231 232 233
234 235 236 237 238 239 240 241 242
243 244 245 246 247 248 249 250 251
252 253 254 255 256 257 258 259 260
261 262 263 264 265 266 267 268 269
270 271 272 273 274 275 276 277 278
279 280 281 282 283 284 285 286 287
288 289 290 291 292 293 294 295 296
297 298 299 300
METADATA
INFORMATION 0

FIELD FieldData 4
Vel 3 301 float
0 0 0 0 0 0 0 0 0
0 0 0 0 0 0 0 0 0
0 0 0 0 0 0 0 0 0
0 0 0 0 0 0 0 0 0
0 0 0 0 0 0 0 0 0
0 0 0 0 0 0 0 0 0
0 0 0 0 0 0 0 0 0
0 0 0 0 0 0 0 0 0
0 0 0 0 0 0 0 0 0
0 0 0 0 0 0 0 0 0
0 0 0 0 0 0 0 0 0
0 0 0 0 0 0 0 0 0
0 0 0 0 0 0 0 0 0
0 0 0 0 0 0 0 0 0
0 0 0 0 0 0 0 0 0
0 0 0 0 0 0 0 0 0
0 0 0 0 0 0 0 0 0
0 0 0 0 0 0 0 0 0
0 0 0 0 0 0 0 0 0
0 0 0 0 0 0 0 0 0
0 0 0 0 0 0 0 0 0
0 0 0 0 0 0 0 0 0
0 0 0 0 0 0 0 0 0
0 0 0 0 0 0 0 0 0
0 0 0 0 0 0 0 0 0
0 0 0 0 0 0 0 0 0
0 0 0 0 0 0 0 0 0
0 0 0 0 0 0 0 0 0
0 0 0 0 0 0 0 0 0
0 0 0 0 0 0 0 0 0
0 0 0 0 0 0 0 0 0
0 0 0 0 0 0 0 0 0
0 0 0 0 0 0 0 0 0
0 0 0 0 0 0 0 0 0
0 0 0 0 0 0 0 0 0
0 0 0 0 0 0 0 0 0
0 0 0 0 0 0 0 0 0
0 0 0 0 0 0 0 0 0
0 0 0 0 0 0 0 0 0
0 0 0 0 0 0 0 0 0
0 0 0 0 0 0 0 0 0
0 0 0 0 0 0 0 0 0
0 0 0 0 0 0 0 0 0
0 0 0 0 0 0 0 0 0
0 0 0 0 0 0 0 0 0
0 0 0 0 0 0 0 0 0
0 0 0 0 0 0 0 0 0
0 0 0 0 0 0 0 0 0
0 0 0 0 0 0 0 0 0
0 0 0 0 0 0 0 0 0
0 0 0 0 0 0 0 0 0
0 0 0 0 0 0 0 0 0
0 0 0 0 0 0 0 0 0
0 0 0 0 0 0 0 0 0
0 0 0 0 0 0 0 0 0
0 0 0 0 0 0 0 0 0
0 0 0 0 0 0 0 0 0
0 0 0 0 0 0 0 0 0
0 0 0 0 0 0 0 0 0
0 0 0 0 0 0 0 0 0
0 0 0 0 0 0 0 0 0
0 0 0 0 0 0 0 0 0
0 0 0 0 0 0 0 0 0
0 0 0 0 0 0 0 0 0
0 0 0 0 0 0 0 0 0
0 0 0 0 0 0 0 0 0
0 0 0 0 0 0 0 0 0
0 0 0 0 0 0 0 0 0
0 0 0 0 0 0 0 0 0
0 0 0 0 0 0 0 0 0
0 0 0 0 0 0 0 0 0
0 0 0 0 0 0 0 0 0
0 0 0 0 0 0 0 0 0
0 0 0 0 0 0 0 0 0
0 0 0 0 0 0 0 0 0
0 0 0 0 0 0 0 0 0
0 0 0 0 0 0 0 0 0
0 0 0 0 0 0 0 0 0
0 0 0 0 0 0 0 0 0
0 0 0 0 0 0 0 0 0
0 0 0 0 0 0 0 0 0
0 0 0 0 0 0 0 0 0
0 0 0 0 0 0 0 0 0
0 0 0 0 0 0 0 0 0
0 0 0 0 0 0 0 0 0
0 0 0 0 0 0 0 0 0
0 0 0 0 0 0 0 0 0
0 0 0 0 0 0 0 0 0
0 0 0 0 0 0 0 0 0
0 0 0 0 0 0 0 0 0
0 0 0 0 0 0 0 0 0
0 0 0 0 0 0 0 0 0
0 0 0 0 0 0 0 0 0
0 0 0 0 0 0 0 0 0
0 0 0 0 0 0 0 0 0
0 0 0 0 0 0 0 0 0
0 0 0 0 0 0 0 0 0
0 0 0 0 0 0 0 0 0
0 0 0 0 0 0 0 0 0
0 0 0 0 0 0 0 0 0
0 0 0
METADATA
INFORMATION 2
NAME L2_NORM_RANGE LOCATION vtkDataArray
DATA 2 0 0
NAME L2_NORM_FINITE_RANGE LOCATION vtkDataArray
DATA 2 0 0

Rhop 1 301 float
1000 1000 1000 1000 1000 1000 1000 1000 1000
1000 1000 1000 1000 1000 1000 1000 1000 1000
1000 1000 1000 1000 1000 1000 1000 1000 1000
1000 1000 1000 1000 1000 1000 1000 1000 1000
1000 1000 1000 1000 1000 1000 1000 1000 1000
1000 1000 1000 1000 1000 1000 1000 1000 1000
1000 1000 1000 1000 1000 1000 1000 1000 1000
1000 1000 1000 1000 1000 1000 1000 1000 1000
1000 1000 1000 1000 1000 1000 1000 1000 1000
1000 1000 1000 1000 1000 1000 1000 1000 1000
1000 1000 1000 1000 1000 1000 1000 1000 1000
1000 1000 1002.48 1002.35 1002.22 1002.09 1001.96 1001.83 1001.7
1001.57 1001.44 1001.31 1001.18 1001.05 1000.92 1000.79 1000.66 1000.53
1000.39 1000.26 1000.13 1000 1002.48 1002.35 1002.22 1002.09 1001.96
1001.83 1001.7 1001.57 1001.44 1001.31 1001.18 1001.05 1000.92 1000.79
1000.66 1000.53 1000.39 1000.26 1000.13 1000 1002.48 1002.35 1002.22
1002.09 1001.96 1001.83 1001.7 1001.57 1001.44 1001.31 1001.18 1001.05
1000.92 1000.79 1000.66 1000.53 1000.39 1000.26 1000.13 1000 1002.48
1002.35 1002.22 1002.09 1001.96 1001.83 1001.7 1001.57 1001.44 1001.31
1001.18 1001.05 1000.92 1000.79 1000.66 1000.53 1000.39 1000.26 1000.13
1000 1002.48 1002.35 1002.22 1002.09 1001.96 1001.83 1001.7 1001.57
1001.44 1001.31 1001.18 1001.05 1000.92 1000.79 1000.66 1000.53 1000.39
1000.26 1000.13 1000 1002.48 1002.35 1002.22 1002.09 1001.96 1001.83
1001.7 1001.57 1001.44 1001.31 1001.18 1001.05 1000.92 1000.79 1000.66
1000.53 1000.39 1000.26 1000.13 1000 1002.48 1002.35 1002.22 1002.09
1001.96 1001.83 1001.7 1001.57 1001.44 1001.31 1001.18 1001.05 1000.92
1000.79 1000.66 1000.53 1000.39 1000.26 1000.13 1000 1002.48 1002.35
1002.22 1002.09 1001.96 1001.83 1001.7 1001.57 1001.44 1001.31 1001.18
1001.05 1000.92 1000.79 1000.66 1000.53 1000.39 1000.26 1000.13 1000
1002.48 1002.35 1002.22 1002.09 1001.96 1001.83 1001.7 1001.57 1001.44
1001.31 1001.18 1001.05 1000.92 1000.79 1000.66 1000.53 1000.39 1000.26
1000.13 1000 1002.48 1002.35 1002.22 1002.09 1001.96 1001.83 1001.7
1001.57 1001.44 1001.31 1001.18 1001.05 1000.92 1000.79 1000.66 1000.53
1000.39 1000.26 1000.13 1000
METADATA
INFORMATION 0

Type 1 301 unsigned_char
0 0 0 0 0 0 0 0 0
0 0 0 0 0 0 0 0 0
0 0 0 0 0 0 0 0 0
0 0 0 0 0 0 0 0 0
0 0 0 0 0 0 0 0 0
0 0 0 0 0 0 0 0 0
0 0 0 0 0 0 0 0 0
0 0 0 0 0 0 0 0 0
0 0 0 0 0 0 0 0 0
0 0 0 0 0 0 0 0 0
0 0 0 0 0 0 0 0 0
0 0 3 3 3 3 3 3 3
3 3 3 3 3 3 3 3 3
3 3 3 3 3 3 3 3 3
3 3 3 3 3 3 3 3 3
3 3 3 3 3 3 3 3 3
3 3 3 3 3 3 3 3 3
3 3 3 3 3 3 3 3 3
3 3 3 3 3 3 3 3 3
3 3 3 3 3 3 3 3 3
3 3 3 3 3 3 3 3 3
3 3 3 3 3 3 3 3 3
3 3 3 3 3 3 3 3 3
3 3 3 3 3 3 3 3 3
3 3 3 3 3 3 3 3 3
3 3 3 3 3 3 3 3 3
3 3 3 3 3 3 3 3 3
3 3 3 3 3 3 3 3 3
3 3 3 3 3 3 3 3 3
3 3 3 3 3 3 3 3 3
3 3 3 3 3 3 3 3 3
3 3 3 3 3 3 3 3 3
3 3 3 3 3 3 3 3 3
3 3 3 3
METADATA
INFORMATION 0

Mk 1 301 unsigned_char
10 10 10 10 10 10 10 10 10
10 10 10 10 10 10 10 10 10
10 10 10 10 10 10 10 10 10
10 10 10 10 10 10 10 10 10
10 10 10 10 10 10 10 10 10
10 10 10 10 10 10 10 10 10
10 10 10 10 10 10 10 10 10
10 10 10 10 10 10 10 10 10
10 10 10 10 10 10 10 10 10
10 10 10 10 10 10 10 10 10
10 10 10 10 10 10 10 10 10
10 10 1 1 1 1 1 1 1
1 1 1 1 1 1 1 1 1
1 1 1 1 1 1 1 1 1
1 1 1 1 1 1 1 1 1
1 1 1 1 1 1 1 1 1
1 1 1 1 1 1 1 1 1
1 1 1 1 1 1 1 1 1
1 1 1 1 1 1 1 1 1
1 1 1 1 1 1 1 1 1
1 1 1 1 1 1 1 1 1
1 1 1 1 1 1 1 1 1
1 1 1 1 1 1 1 1 1
1 1 1 1 1 1 1 1 1
1 1 1 1 1 1 1 1 1
1 1 1 1 1 1 1 1 1
1 1 1 1 1 1 1 1 1
1 1 1 1 1 1 1 1 1
1 1 1 1 1 1 1 1 1
1 1 1 1 1 1 1 1 1
1 1 1 1 1 1 1 1 1
1 1 1 1 1 1 1 1 1
1 1 1 1 1 1 1 1 1
1 1 1 1

